[Molden Format]
[Atoms] AU
He     1     2     0.0000000000     0.0000000000     0.0000000000
[GTO]
           1           0
 s           3 1.00
    0.3842163400E+02      0.2376600000E-01
    0.5778030000E+01      0.1546790000E+00
    0.1241774000E+01      0.4696300000E+00
 
 s           1 1.00
    0.2979640000E+00      0.1000000000E+01
 
[MO]
 Sym= 1
 Ene= -0.91412663203186240     
 Spin= Alpha
 Occup=   2.0000000000000000     
     1      0.9999994634E+00
     2      0.5135860169E+00
 Sym= 1
 Ene=   1.3998593325139721     
 Spin= Alpha
 Occup=   0.0000000000000000     
     1     -0.1941992639E+01
     2      0.1186958793E+01
