[Molden Format]
[Atoms] AU
 H     1     1    -0.7570000545     0.5860000422     0.0000000000
 H     2     1     0.7570000545     0.5860000422     0.0000000000
 O     3     8     0.0000000000     0.0000000000     0.0000000000
[GTO]
           1           0
 s           3 1.00
    0.1301000000E+02      0.1968500000E-01
    0.1962000000E+01      0.1379770000E+00
    0.4446000000E+00      0.4781480000E+00
 
 s           1 1.00
    0.1220000000E+00      0.1000000000E+01
 
 p           1 1.00
    0.7270000000E+00      0.1000000000E+01
 
           2           0
 s           3 1.00
    0.1301000000E+02      0.1968500000E-01
    0.1962000000E+01      0.1379770000E+00
    0.4446000000E+00      0.4781480000E+00
 
 s           1 1.00
    0.1220000000E+00      0.1000000000E+01
 
 p           1 1.00
    0.7270000000E+00      0.1000000000E+01
 
           3           0
 s           8 1.00
    0.1172000000E+05      0.7100000000E-03
    0.1759000000E+04      0.5470000000E-02
    0.4008000000E+03      0.2783700000E-01
    0.1137000000E+03      0.1048000000E+00
    0.3703000000E+02      0.2830620000E+00
    0.1327000000E+02      0.4487190000E+00
    0.5025000000E+01      0.2709520000E+00
    0.1013000000E+01      0.1545800000E-01
 
 s           8 1.00
    0.1172000000E+05     -0.1600000000E-03
    0.1759000000E+04     -0.1263000000E-02
    0.4008000000E+03     -0.6267000000E-02
    0.1137000000E+03     -0.2571600000E-01
    0.3703000000E+02     -0.7092400000E-01
    0.1327000000E+02     -0.1654110000E+00
    0.5025000000E+01     -0.1169550000E+00
    0.1013000000E+01      0.5573680000E+00
 
 s           1 1.00
    0.3023000000E+00      0.1000000000E+01
 
 p           3 1.00
    0.1770000000E+02      0.4301800000E-01
    0.3854000000E+01      0.2289130000E+00
    0.1046000000E+01      0.5087280000E+00
 
 p           1 1.00
    0.2753000000E+00      0.1000000000E+01
 
 d           1 1.00
    0.1185000000E+01      0.1000000000E+01
 
[MO]
 Sym= 1
 Ene=  -20.550438142794047     
 Spin= Alpha
 Occup=   2.0000000000000000     
     1      0.4108535479E-03
     2     -0.4213662689E-03
     3      0.5717245312E-03
     4     -0.4820673350E-03
     5      0.4179973925E-15
     6      0.4108535479E-03
     7     -0.4213662689E-03
     8     -0.5717245312E-03
     9     -0.4820673350E-03
    10     -0.3391583784E-15
    11     -0.1000400678E+01
    12     -0.2310080547E-02
    13      0.2665883695E-02
    14     -0.4410758547E-15
    15     -0.2568592188E-02
    16      0.4778537202E-15
    17     -0.9218733653E-15
    18      0.4838470607E-03
    19     -0.2662084742E-16
    20     -0.1143470978E-03
    21     -0.1102132175E-04
    22      0.1253684196E-03
    23     -0.6628991475E-15
    24      0.9992426870E-15
    25      0.1715462777E-15
 Sym= 1
 Ene=  -1.3366577374949240     
 Spin= Alpha
 Occup=   2.0000000000000000     
     1      0.3294345713E+00
     2      0.1008437202E-01
     3      0.3733027906E-01
     4     -0.2047936114E-01
     5      0.1459763532E-15
     6      0.3294345713E+00
     7      0.1008437202E-01
     8     -0.3733027906E-01
     9     -0.2047936114E-01
    10     -0.6229598496E-15
    11     -0.8211981563E-02
    12      0.8703856325E+00
    13      0.3757393022E+00
    14      0.3517148491E-14
    15      0.1148506563E+00
    16     -0.6347728448E-15
    17      0.8861259425E-15
    18     -0.1308814628E-01
    19      0.8900750754E-16
    20      0.1990316043E-02
    21      0.1241264291E-02
    22     -0.3231580334E-02
    23      0.7118339605E-16
    24      0.6517200029E-16
    25      0.1417757175E-15
 Sym= 1
 Ene= -0.69926230649696386     
 Spin= Alpha
 Occup=   2.0000000000000000     
     1     -0.5581467884E+00
     2     -0.8977545605E-01
     3     -0.2332017810E-01
     4      0.3266584311E-01
     5     -0.3371078196E-15
     6      0.5581467884E+00
     7      0.8977545605E-01
     8     -0.2332017810E-01
     9     -0.3266584311E-01
    10      0.4787910550E-15
    11     -0.1253344755E-15
    12     -0.3643990402E-14
    13      0.2582559495E-14
    14      0.7139087186E+00
    15      0.2148981562E-15
    16      0.6333196849E-14
    17      0.2218717433E+00
    18      0.4883090780E-14
    19      0.3196867225E-14
    20      0.2840425233E-15
    21      0.1376537044E-15
    22     -0.4216962277E-15
    23      0.2680963146E-01
    24      0.1371226977E-15
    25      0.2485519781E-15
 Sym= 1
 Ene= -0.56656246403949184     
 Spin= Alpha
 Occup=   2.0000000000000000     
     1      0.3512026873E+00
     2      0.4031701142E-01
     3      0.3175798394E-01
     4      0.7545158695E-02
     5     -0.4901829739E-15
     6      0.3512026873E+00
     7      0.4031701142E-01
     8     -0.3175798394E-01
     9      0.7545158695E-02
    10     -0.5202058629E-15
    11      0.2162019643E-02
    12     -0.2955644419E+00
    13     -0.3498003593E+00
    14     -0.2470259991E-15
    15      0.7948012779E+00
    16     -0.1275642363E-13
    17     -0.3669853417E-15
    18      0.3653421798E+00
    19     -0.7477877205E-14
    20     -0.4957164724E-02
    21      0.1787411699E-01
    22     -0.1291695227E-01
    23     -0.3365858392E-15
    24      0.1167005333E-16
    25     -0.2975292664E-15
 Sym= 1
 Ene= -0.49314214540246482     
 Spin= Alpha
 Occup=   2.0000000000000000     
     1      0.6234333251E-14
     2      0.6540097962E-16
     3      0.1047467510E-14
     4     -0.2810117422E-15
     5      0.3107803553E-01
     6      0.1084869345E-14
     7     -0.1064869920E-15
     8     -0.3216370684E-15
     9      0.3370810542E-15
    10      0.3107803553E-01
    11      0.1577271498E-15
    12     -0.2565742991E-14
    13     -0.3914930214E-14
    14     -0.4582883963E-14
    15      0.1059998847E-13
    16      0.9196435398E+00
    17     -0.1257925903E-14
    18      0.5884270846E-14
    19      0.4956547584E+00
    20     -0.1526288384E-15
    21      0.1198221994E-15
    22      0.3280663902E-16
    23     -0.2647123577E-15
    24      0.2567173949E-15
    25      0.1820512089E-01
 Sym= 1
 Ene=  0.18555891483839126     
 Spin= Alpha
 Occup=   0.0000000000000000     
     1      0.1003228445E+00
     2      0.8293004835E+00
     3      0.1756397780E-01
     4     -0.1633037823E-01
     5     -0.2392425271E-15
     6      0.1003228445E+00
     7      0.8293004835E+00
     8     -0.1756397780E-01
     9     -0.1633037823E-01
    10      0.2751378746E-15
    11      0.5203149281E-01
    12     -0.1426886774E+00
    13     -0.1002740160E+01
    14     -0.1811360251E-13
    15     -0.2775644669E+00
    16      0.5451420167E-15
    17     -0.3959965271E-13
    18     -0.3369594715E+00
    19     -0.2985010358E-15
    20     -0.4886308772E-02
    21     -0.7525736014E-02
    22      0.1241204479E-01
    23     -0.1480641161E-14
    24     -0.1167602112E-15
    25     -0.1015402675E-15
 Sym= 1
 Ene=  0.25624354334230331     
 Spin= Alpha
 Occup=   0.0000000000000000     
     1      0.4414951334E-01
     2      0.1444390252E+01
     3      0.2083853835E-01
     4     -0.1716545177E-01
     5     -0.4060457648E-16
     6     -0.4414951334E-01
     7     -0.1444390252E+01
     8      0.2083853835E-01
     9      0.1716545177E-01
    10      0.1489851126E-15
    11     -0.2629802018E-14
    12     -0.2906945175E-13
    13     -0.2853800954E-13
    14      0.4125890935E+00
    15     -0.1440998146E-13
    16     -0.2959032406E-15
    17      0.6710027575E+00
    18     -0.9978200055E-14
    19     -0.1388931592E-16
    20     -0.5575808851E-15
    21     -0.2097308088E-15
    22      0.7673116939E-15
    23      0.2126346224E-01
    24      0.2640923775E-16
    25     -0.5146219155E-16
 Sym= 1
 Ene=  0.78927072928165298     
 Spin= Alpha
 Occup=   0.0000000000000000     
     1      0.1607043934E+01
     2     -0.6860646731E+00
     3     -0.7399892762E-01
     4      0.1529330659E+00
     5     -0.4611925455E-16
     6     -0.1607043934E+01
     7      0.6860646731E+00
     8     -0.7399892762E-01
     9     -0.1529330659E+00
    10     -0.3664073861E-15
    11     -0.1933163531E-14
    12     -0.3555108951E-13
    13     -0.1425320207E-13
    14      0.3904121977E+00
    15     -0.1965552705E-13
    16     -0.1707583582E-14
    17      0.4612867513E+00
    18     -0.4645721421E-13
    19      0.1032575385E-14
    20      0.8447486909E-14
    21     -0.7247383779E-15
    22     -0.7722748531E-14
    23     -0.1117300751E+00
    24      0.2510926624E-15
    25     -0.8811916634E-15
 Sym= 1
 Ene=  0.85427561634579019     
 Spin= Alpha
 Occup=   0.0000000000000000     
     1     -0.1340075532E+01
     2      0.5476859346E+00
     3      0.2960975900E+00
     4     -0.5917948206E-01
     5      0.8636564109E-15
     6     -0.1340075532E+01
     7      0.5476859346E+00
     8     -0.2960975900E+00
     9     -0.5917948206E-01
    10     -0.1227157646E-15
    11      0.6507089217E-01
    12      0.5027343730E+00
    13     -0.3197242896E+00
    14      0.4382588242E-13
    15      0.4796604725E+00
    16     -0.6762890084E-14
    17      0.1488811890E-13
    18     -0.9735850701E-02
    19      0.5627148412E-14
    20     -0.9224938898E-01
    21     -0.9308903253E-03
    22      0.9318027931E-01
    23     -0.1347242527E-13
    24     -0.1685932473E-15
    25     -0.5915292604E-15
 Sym= 1
 Ene=   1.1635122867053593     
 Spin= Alpha
 Occup=   0.0000000000000000     
     1     -0.9307017112E+00
     2     -0.1131255113E+00
     3     -0.8449386116E-01
     4      0.2507170726E+00
     5     -0.1195133374E-14
     6     -0.9307017112E+00
     7     -0.1131255113E+00
     8      0.8449386116E-01
     9      0.2507170726E+00
    10     -0.3655058000E-14
    11      0.3144758138E-02
    12      0.2254289271E+00
    13      0.7493014844E+00
    14      0.4497767546E-13
    15     -0.1099278677E+01
    16      0.3770683441E-13
    17     -0.6809077645E-13
    18      0.1279255528E+01
    19     -0.2470306086E-13
    20     -0.1215305590E-01
    21      0.1275102552E-01
    22     -0.5979696157E-03
    23     -0.8196341836E-14
    24     -0.1030787908E-14
    25     -0.7531510883E-15
 Sym= 1
 Ene=   1.2003847074975200     
 Spin= Alpha
 Occup=   0.0000000000000000     
     1      0.2504124763E-13
     2      0.2291957854E-13
     3      0.8448735177E-14
     4     -0.1509873349E-13
     5     -0.8105036294E-02
     6     -0.1114853131E-14
     7     -0.4397892537E-14
     8      0.3796881250E-14
     9     -0.9620967857E-14
    10     -0.8105036294E-02
    11      0.2008879247E-14
    12      0.5365326963E-14
    13     -0.2867108321E-13
    14     -0.1538687125E-13
    15      0.3154488012E-13
    16      0.1410162832E+01
    17      0.2924922897E-13
    18     -0.2864354144E-13
    19     -0.1025218169E+01
    20     -0.3012783935E-16
    21     -0.1564331727E-14
    22      0.1594459567E-14
    23      0.5354164061E-15
    24     -0.1096510725E-14
    25      0.3522916856E-02
 Sym= 1
 Ene=   1.2533057803156595     
 Spin= Alpha
 Occup=   0.0000000000000000     
     1     -0.6457737825E+00
     2     -0.8254860694E+00
     3     -0.3027099937E+00
     4      0.1867028488E+00
     5     -0.3085810230E-14
     6      0.6457737825E+00
     7      0.8254860694E+00
     8     -0.3027099937E+00
     9     -0.1867028488E+00
    10     -0.4084582632E-15
    11      0.2237710589E-14
    12     -0.1144807293E-15
    13     -0.3034721368E-13
    14      0.1069549276E+01
    15      0.3977010208E-13
    16      0.2334929109E-13
    17     -0.1764322777E+01
    18     -0.5073446442E-13
    19     -0.1666507219E-13
    20      0.4045137731E-14
    21     -0.1676173763E-14
    22     -0.2368963968E-14
    23     -0.4461462869E-01
    24     -0.3616663045E-15
    25     -0.1780372963E-14
 Sym= 1
 Ene=   1.4446018109910710     
 Spin= Alpha
 Occup=   0.0000000000000000     
     1     -0.5668870056E+00
     2      0.2096450034E+00
     3     -0.3291418450E+00
     4     -0.5457029972E+00
     5      0.3850356815E-13
     6     -0.5668870056E+00
     7      0.2096450034E+00
     8      0.3291418450E+00
     9     -0.5457029972E+00
    10     -0.3854501364E-13
    11      0.2019151839E+00
    12      0.1040261645E+01
    13     -0.5072423849E+00
    14      0.4642307440E-14
    15     -0.1926452622E+00
    16     -0.1354863438E-13
    17      0.2846757087E-14
    18      0.7395522125E+00
    19      0.1037168731E-13
    20      0.6262711903E-01
    21     -0.1171988477E+00
    22      0.5457172863E-01
    23     -0.2094022404E-14
    24     -0.7532754060E-14
    25      0.4709977951E-15
 Sym= 1
 Ene=   1.4762471655752145     
 Spin= Alpha
 Occup=   0.0000000000000000     
     1     -0.3339292325E-13
     2      0.1336826543E-13
     3     -0.1590653006E-13
     4     -0.3125550369E-13
     5     -0.6856092372E+00
     6     -0.3549929564E-13
     7      0.1246694339E-13
     8      0.1858393190E-13
     9     -0.3151317659E-13
    10      0.6856092372E+00
    11      0.1300187960E-13
    12      0.6672315871E-13
    13     -0.3394254313E-13
    14     -0.9523115022E-15
    15     -0.1404074757E-13
    16      0.1224529054E-13
    17      0.2766437715E-14
    18      0.4395185854E-13
    19     -0.1066659618E-13
    20      0.3669868293E-14
    21     -0.5629176856E-14
    22      0.1959308563E-14
    23      0.5236854234E-15
    24      0.1312608299E+00
    25     -0.1142080372E-14
 Sym= 1
 Ene=   1.6746655027635962     
 Spin= Alpha
 Occup=   0.0000000000000000     
     1      0.3620757953E-14
     2     -0.1931142665E-14
     3      0.5301822197E-14
     4      0.6741207966E-14
     5      0.7671146918E+00
     6      0.8684505294E-14
     7      0.6809260155E-14
     8      0.1778014125E-14
     9     -0.2020414653E-14
    10      0.7671146918E+00
    11      0.5976230424E-14
    12      0.2706509081E-13
    13     -0.1934639621E-13
    14      0.6542407995E-14
    15     -0.4886748032E-14
    16     -0.2955692364E-01
    17     -0.1134756103E-13
    18     -0.1834006144E-14
    19     -0.6336274398E+00
    20      0.6026584713E-15
    21      0.8441703287E-15
    22     -0.1446828800E-14
    23      0.4882575548E-15
    24     -0.5916186620E-15
    25      0.1607738687E+00
 Sym= 1
 Ene=   1.8673127824383859     
 Spin= Alpha
 Occup=   0.0000000000000000     
     1      0.1410276151E+01
     2      0.3880571496E+00
     3      0.3731064336E+00
     4      0.2344317168E-01
     5     -0.4679822101E-14
     6      0.1410276151E+01
     7      0.3880571496E+00
     8     -0.3731064336E+00
     9      0.2344317168E-01
    10     -0.9852609119E-14
    11      0.7239536765E+00
    12      0.3130362468E+01
    13     -0.3034864393E+01
    14      0.3322394514E-14
    15     -0.1604293188E+00
    16      0.9668065717E-15
    17     -0.6138051032E-14
    18     -0.9678296985E+00
    19      0.6221991087E-14
    20      0.3656648286E-01
    21      0.1141566584E+00
    22     -0.1507231412E+00
    23      0.5424578189E-14
    24      0.3572370158E-15
    25     -0.3058896746E-15
 Sym= 1
 Ene=   1.9348499993257766     
 Spin= Alpha
 Occup=   0.0000000000000000     
     1      0.6599833667E+00
     2      0.9156045891E-01
     3     -0.4719532915E+00
     4     -0.6931360531E+00
     5      0.6181720656E-14
     6     -0.6599833667E+00
     7     -0.9156045891E-01
     8     -0.4719532915E+00
     9      0.6931360531E+00
    10      0.6944910259E-14
    11      0.1205162527E-13
    12      0.5115720300E-13
    13     -0.6757246374E-13
    14     -0.1509483223E-01
    15     -0.1638749103E-13
    16      0.2234172527E-14
    17      0.9017640646E+00
    18     -0.1477608067E-13
    19     -0.7026232675E-14
    20      0.5783459734E-14
    21     -0.3090330127E-14
    22     -0.2693129607E-14
    23     -0.2938943662E-01
    24      0.1626548012E-14
    25     -0.1780248512E-15
 Sym= 1
 Ene=   2.4527675182081987     
 Spin= Alpha
 Occup=   0.0000000000000000     
     1     -0.5030758400E+00
     2     -0.3299835235E+00
     3     -0.7244062552E+00
     4      0.5551800884E+00
     5      0.1497061555E-14
     6      0.5030758400E+00
     7      0.3299835235E+00
     8     -0.7244062552E+00
     9     -0.5551800884E+00
    10      0.3969826025E-14
    11      0.7646723627E-14
    12      0.3459808097E-13
    13     -0.1391159307E-13
    14     -0.1223053248E+01
    15      0.9463130390E-14
    16      0.2439314742E-14
    17     -0.1527398970E+00
    18     -0.9172440947E-14
    19     -0.4680838391E-14
    20     -0.1462749704E-14
    21     -0.4217522566E-14
    22      0.5680272270E-14
    23      0.1386487306E+00
    24     -0.2903407931E-14
    25     -0.2157021658E-14
 Sym= 1
 Ene=   2.4902525499684640     
 Spin= Alpha
 Occup=   0.0000000000000000     
     1     -0.8148756695E+00
     2     -0.1587894292E+00
     3     -0.7446535236E+00
     4      0.5368202371E+00
     5     -0.1457501637E-14
     6     -0.8148756695E+00
     7     -0.1587894292E+00
     8      0.7446535236E+00
     9      0.5368202371E+00
    10      0.2342690320E-14
    11      0.2783667614E+00
    12      0.1433573589E+01
    13      0.7926210358E+00
    14      0.1245539143E-13
    15      0.9753980866E+00
    16      0.1824429208E-14
    17      0.1060605790E-13
    18      0.1797427278E+00
    19     -0.5451101208E-15
    20     -0.1618091708E+00
    21     -0.5317182456E-01
    22      0.2149809953E+00
    23     -0.4675750559E-14
    24     -0.1235823088E-14
    25     -0.4250746540E-14
 Sym= 1
 Ene=   3.2856188826698598     
 Spin= Alpha
 Occup=   0.0000000000000000     
     1     -0.9704995626E-14
     2      0.4294876573E-14
     3      0.2323254250E-14
     4     -0.1637261991E-14
     5      0.3984347746E+00
     6      0.1071560864E-13
     7     -0.3441140943E-14
     8      0.7452607529E-15
     9     -0.4492557545E-14
    10      0.3984347746E+00
    11     -0.8263486319E-15
    12     -0.4426879410E-14
    13     -0.1401168484E-14
    14     -0.3963874454E-14
    15     -0.3462339855E-14
    16      0.1668210680E-01
    17     -0.2429225754E-14
    18      0.1156134269E-14
    19     -0.3117172950E+00
    20      0.1433682152E-14
    21      0.4398993212E-14
    22     -0.5832675364E-14
    23     -0.6596251260E-14
    24      0.1340269128E-13
    25     -0.1042817061E+01
 Sym= 1
 Ene=   3.3388649142620705     
 Spin= Alpha
 Occup=   0.0000000000000000     
     1      0.3353274406E-13
     2      0.4931497564E-14
     3      0.1160746438E-13
     4     -0.9480959754E-14
     5     -0.3715385262E+00
     6      0.2188485170E-13
     7      0.1650207457E-14
     8     -0.6183535180E-14
     9     -0.1698184396E-14
    10      0.3715385262E+00
    11      0.1965963977E-14
    12      0.3866665058E-14
    13     -0.3080912518E-13
    14      0.3771545432E-14
    15     -0.5760478045E-14
    16     -0.6783133365E-15
    17      0.5151554976E-14
    18     -0.1494490861E-13
    19     -0.3691464233E-14
    20     -0.7825239127E-14
    21     -0.3005804548E-14
    22      0.1083104368E-13
    23     -0.3986239834E-15
    24     -0.1066263044E+01
    25     -0.1447489400E-13
 Sym= 1
 Ene=   3.5104778269594688     
 Spin= Alpha
 Occup=   0.0000000000000000     
     1      0.5235791871E+00
     2      0.3808915431E-01
     3      0.3531781154E+00
     4      0.3149218940E+00
     5      0.1065570618E-14
     6      0.5235791871E+00
     7      0.3808915431E-01
     8     -0.3531781154E+00
     9      0.3149218940E+00
    10      0.1490607316E-14
    11      0.8424965825E-01
    12      0.3031250143E+00
    13     -0.5608168988E+00
    14      0.8826298250E-14
    15     -0.2874926870E-01
    16     -0.8130714846E-15
    17      0.1219945019E-13
    18     -0.5389688800E+00
    19     -0.6019170942E-15
    20      0.6936400721E+00
    21     -0.1084739161E+01
    22      0.3910990890E+00
    23      0.1479440151E-13
    24      0.2387998248E-14
    25     -0.3695854760E-14
 Sym= 1
 Ene=   3.8658453611730859     
 Spin= Alpha
 Occup=   0.0000000000000000     
     1     -0.2107837613E+01
     2     -0.1917435809E+00
     3     -0.6205812622E+00
     4      0.4936708648E+00
     5     -0.5618735187E-14
     6     -0.2107837613E+01
     7     -0.1917435809E+00
     8      0.6205812622E+00
     9      0.4936708648E+00
    10      0.1474888984E-14
    11     -0.1423540330E+00
    12     -0.3442050667E+00
    13      0.2268853411E+01
    14     -0.1188273354E-13
    15      0.5903370792E+00
    16      0.1207799794E-14
    17     -0.1280040011E-13
    18      0.9213173682E+00
    19     -0.8673192134E-16
    20      0.9377364091E+00
    21      0.1338118268E+00
    22     -0.1071548236E+01
    23     -0.1469326324E-13
    24     -0.1235645363E-13
    25      0.3064162113E-14
 Sym= 1
 Ene=   4.1474497075552703     
 Spin= Alpha
 Occup=   0.0000000000000000     
     1      0.1849785062E+01
     2      0.2885919078E+00
     3      0.6062022403E+00
     4     -0.4936655462E+00
     5      0.2035022163E-14
     6     -0.1849785062E+01
     7     -0.2885919078E+00
     8      0.6062022403E+00
     9      0.4936655462E+00
    10      0.5324832533E-15
    11     -0.4636032957E-14
    12     -0.1614450633E-13
    13      0.4705325188E-13
    14      0.6837040903E+00
    15      0.7199974258E-14
    16     -0.7234844186E-15
    17      0.1144761732E+01
    18      0.2431234553E-13
    19     -0.1017270431E-14
    20      0.4630257988E-15
    21      0.1505529222E-13
    22     -0.1551831802E-13
    23      0.1325549215E+01
    24      0.1433803045E-15
    25     -0.6822118074E-14
