[Molden Format]
[Atoms] AU
He     1     2     0.0000000000     0.0000000000     0.0000000000
[GTO]
           1           0
 s           3 1.00
    0.3836000000E+02      0.2380900000E-01
    0.5770000000E+01      0.1548910000E+00
    0.1240000000E+01      0.4699870000E+00
 
 s           1 1.00
    0.2976000000E+00      0.1000000000E+01
 
 p           1 1.00
    0.1275000000E+01      0.1000000000E+01
 
[MO]
 Sym= 1
 Ene= -0.91414792594029537     
 Spin= Alpha
 Occup=   2.0000000000000000     
     1     -0.9999998351E+00
     2     -0.5130267562E+00
     3      0.0000000000E+00
     4      0.0000000000E+00
     5      0.0000000000E+00
 Sym= 1
 Ene=   1.3974417042279512     
 Spin= Alpha
 Occup=   0.0000000000000000     
     1     -0.1939827033E+01
     2      0.1187230503E+01
     3      0.0000000000E+00
     4      0.0000000000E+00
     5      0.0000000000E+00
 Sym= 1
 Ene=   2.5243720258826592     
 Spin= Alpha
 Occup=   0.0000000000000000     
     1      0.0000000000E+00
     2      0.0000000000E+00
     3      0.0000000000E+00
     4      0.0000000000E+00
     5      0.1000000000E+01
 Sym= 1
 Ene=   2.5243720258826592     
 Spin= Alpha
 Occup=   0.0000000000000000     
     1      0.0000000000E+00
     2      0.0000000000E+00
     3      0.0000000000E+00
     4      0.1000000000E+01
     5      0.0000000000E+00
 Sym= 1
 Ene=   2.5243720258826601     
 Spin= Alpha
 Occup=   0.0000000000000000     
     1      0.0000000000E+00
     2      0.0000000000E+00
     3      0.1000000000E+01
     4      0.0000000000E+00
     5      0.0000000000E+00
